# vtk DataFile Version 3.0 
2D Unstructured Grid
ASCII
DATASET UNSTRUCTURED_GRID
POINTS 12 float 
0 0 0.
0 1 0.
1 0 0.
1 1 0.
0 0.5 0.
0.5 0 0.
1 0.5 0.
0.5 1 0.
0.29375 0.70625 0.
0.375 0.375 0.
0.6479167 0.64375 0.
0.71875 0.28125 0.

CELLS 14 56
3 6 3 10
3 4 0 9
3 0 5 9
3 3 7 10
3 5 2 11
3 2 6 11
3 7 1 8
3 1 4 8
3 6 10 11
3 8 4 9
3 8 9 10
3 9 5 11
3 10 9 11
3 7 8 10

CELL_TYPES 14
5
5
5
5
5
5
5
5
5
5
5
5
5
5

CELL_DATA 14
SCALARS sol float 1
LOOKUP_TABLE default
0.0002843409
1.512432e-06
7.264764e-05
2.388028e-05
0.2546622
0.2465817
9.786919e-08
1.952482e-08
0.01090214
7.746984e-07
2.646087e-05
0.00591119
0.0005268856
2.154632e-06

SCALARS CFL float 1
LOOKUP_TABLE default
6.176069e-07
3.182693e-09
1.528764e-07
5.166606e-08
0.0006092143
0.0005898837
2.303976e-10
1e-10
2.957291e-05
2.121918e-09
7.324905e-08
1.600655e-05
1.4257e-06
5.853371e-09

SCALARS Pe float 1
LOOKUP_TABLE default
0.0001636351
8.983937e-07
4.315315e-05
1.379697e-05
0.1330666
0.1288443
5.196657e-08
1.036729e-08
0.005023882
3.535466e-07
1.194858e-05
0.002728739
0.0002433965
9.914025e-07

VECTORS vel float
-9.014026 7.568628 0
-0.2126736 0.4375 0
-0.09114583 0.4375 0
-11.1205 7.571406 0
-0.1300049 0.8320312 0
-1.22918 2.832031 0
-4.306117 2.864115 0
-1.05914 0.8641146 0
-3.559861 4.496667 0
-1.2386 1.409948 0
-2.902153 3.028333 0
-0.5084229 1.394531 0
-2.180309 3.018889 0
-5.897485 4.517222 0

