# vtk DataFile Version 3.0 
2D Unstructured Grid
ASCII
DATASET UNSTRUCTURED_GRID
POINTS 12 float 
0 0 0.
0 1 0.
1 0 0.
1 1 0.
0 0.5 0.
0.5 0 0.
1 0.5 0.
0.5 1 0.
0.29375 0.70625 0.
0.375 0.375 0.
0.6479167 0.64375 0.
0.71875 0.28125 0.

CELLS 14 56
3 6 3 10
3 4 0 9
3 0 5 9
3 3 7 10
3 5 2 11
3 2 6 11
3 7 1 8
3 1 4 8
3 6 10 11
3 8 4 9
3 8 9 10
3 9 5 11
3 10 9 11
3 7 8 10

CELL_TYPES 14
5
5
5
5
5
5
5
5
5
5
5
5
5
5

CELL_DATA 14
SCALARS sol float 1
LOOKUP_TABLE default
0.008532407
0.01018087
0.01018087
0.008677155
0.004405961
0.004405961
0.004992293
0.004992293
0.05668777
0.06332148
0.1729447
0.06072677
0.1693967
0.06000837

SCALARS CFL float 1
LOOKUP_TABLE default
1.853294e-05
2.142416e-05
2.142416e-05
1.877341e-05
1.054014e-05
1.054014e-05
1.175255e-05
1.175255e-05
0.00015377
0.0001734391
0.0004787461
0.0001644383
0.0004583706
0.0001630215

SCALARS Pe float 1
LOOKUP_TABLE default
0.004910308
0.006047498
0.006047498
0.005013275
0.002302211
0.002302211
0.002650807
0.002650807
0.02612264
0.02889782
0.07809433
0.02803285
0.07825335
0.02761142

VECTORS vel float
0 0 0
0 0 0
0 0 0
0 0 0
0 0 0
0 0 0
0 0 0
0 0 0
0 0 0
0 0 0
0 0 0
0 0 0
0 0 0
0 0 0

