# vtk DataFile Version 3.0 
2D Unstructured Grid
ASCII
DATASET UNSTRUCTURED_GRID
POINTS 12 float 
0 0 0.
0 1 0.
1 0 0.
1 1 0.
0 0.5 0.
0.5 0 0.
1 0.5 0.
0.5 1 0.
0.29375 0.70625 0.
0.375 0.375 0.
0.6479167 0.64375 0.
0.71875 0.28125 0.

CELLS 14 56
3 6 3 10
3 4 0 9
3 0 5 9
3 3 7 10
3 5 2 11
3 2 6 11
3 7 1 8
3 1 4 8
3 6 10 11
3 8 4 9
3 8 9 10
3 9 5 11
3 10 9 11
3 7 8 10

CELL_TYPES 14
5
5
5
5
5
5
5
5
5
5
5
5
5
5

CELL_DATA 14
SCALARS sol float 1
LOOKUP_TABLE default
0.007894822
0.009550394
0.00951297
0.00808863
0.004255743
0.004189969
0.004742374
0.004800968
0.05677764
0.06310477
0.1742072
0.06058743
0.1706969
0.06005316

SCALARS CFL float 1
LOOKUP_TABLE default
1.714807e-05
2.009742e-05
2.001867e-05
1.750011e-05
1.018078e-05
1.002343e-05
1.11642e-05
1.130214e-05
0.0001540138
0.0001728456
0.0004822408
0.000164061
0.000461889
0.0001631432

SCALARS Pe float 1
LOOKUP_TABLE default
0.004543385
0.005672993
0.005650763
0.004673252
0.002223718
0.00218935
0.002518105
0.002549217
0.02616405
0.02879892
0.0786644
0.02796853
0.07885401
0.02763203

VECTORS vel float
0 0 0
0 0 0
0 0 0
0 0 0
0 0 0
0 0 0
0 0 0
0 0 0
0 0 0
0 0 0
0 0 0
0 0 0
0 0 0
0 0 0

