# vtk DataFile Version 3.0 
2D Unstructured Grid
ASCII
DATASET UNSTRUCTURED_GRID
POINTS 12 float 
0 0 0.
0 1 0.
1 0 0.
1 1 0.
0 0.5 0.
0.5 0 0.
1 0.5 0.
0.5 1 0.
0.29375 0.70625 0.
0.375 0.375 0.
0.6479167 0.64375 0.
0.71875 0.28125 0.

CELLS 14 56
3 6 3 10
3 4 0 9
3 0 5 9
3 3 7 10
3 5 2 11
3 2 6 11
3 7 1 8
3 1 4 8
3 6 10 11
3 8 4 9
3 8 9 10
3 9 5 11
3 10 9 11
3 7 8 10

CELL_TYPES 14
5
5
5
5
5
5
5
5
5
5
5
5
5
5

CELL_DATA 14
SCALARS sol float 1
LOOKUP_TABLE default
0.1884683
0.1970822
0.1983852
0.1905278
0.163535
0.1611718
0.1679104
0.1658127
0.3289821
0.3392729
0.4781796
0.3352756
0.4745428
0.3345422

SCALARS CFL float 1
LOOKUP_TABLE default
0.0004093655
0.000414731
0.000417473
0.0004122155
0.0003912157
0.0003855623
0.0003952844
0.0003903461
0.0008923898
0.0009292772
0.001323698
0.0009078726
0.001284066
0.0009088328

SCALARS Pe float 1
LOOKUP_TABLE default
0.1084615
0.117068
0.1178421
0.1100785
0.08545061
0.08421577
0.08915706
0.08804322
0.1516003
0.1548329
0.2159251
0.1547708
0.2192166
0.1539317

VECTORS vel float
0 0 0
0 0 0
0 0 0
0 0 0
0 0 0
0 0 0
0 0 0
0 0 0
0 0 0
0 0 0
0 0 0
0 0 0
0 0 0
0 0 0

