# vtk DataFile Version 3.0 
2D Unstructured Grid
ASCII
DATASET UNSTRUCTURED_GRID
POINTS 12 float 
0 0 0.
0 1 0.
1 0 0.
1 1 0.
0 0.5 0.
0.5 0 0.
1 0.5 0.
0.5 1 0.
0.29375 0.70625 0.
0.375 0.375 0.
0.6479167 0.64375 0.
0.71875 0.28125 0.

CELLS 14 56
3 6 3 10
3 4 0 9
3 0 5 9
3 3 7 10
3 5 2 11
3 2 6 11
3 7 1 8
3 1 4 8
3 6 10 11
3 8 4 9
3 8 9 10
3 9 5 11
3 10 9 11
3 7 8 10

CELL_TYPES 14
5
5
5
5
5
5
5
5
5
5
5
5
5
5

CELL_DATA 14
SCALARS sol float 1
LOOKUP_TABLE default
6.187689e-09
1e-10
8.922209e-09
1e-10
0.2756486
0.2756486
1e-10
1e-10
0.0004767425
1e-10
3.044778e-10
0.0005509281
2.351685e-05
1e-10

SCALARS CFL float 1
LOOKUP_TABLE default
1e-10
1e-10
1e-10
1e-10
0.0006594188
0.0006594188
1e-10
1e-10
1.293202e-06
1e-10
1e-10
1.491825e-06
6.363428e-08
1e-10

VECTORS vel float
-9.014026 7.568628 0
-0.2126736 0.4375 0
-0.09114583 0.4375 0
-11.1205 7.571406 0
-0.1300049 0.8320312 0
-1.22918 2.832031 0
-4.306117 2.864115 0
-1.05914 0.8641146 0
-3.559861 4.496667 0
-1.2386 1.409948 0
-2.902153 3.028333 0
-0.5084229 1.394531 0
-2.180309 3.018889 0
-5.897485 4.517222 0

