# vtk DataFile Version 3.0 
2D Unstructured Grid
ASCII
DATASET UNSTRUCTURED_GRID
POINTS 12 float 
0 0 0.
0 1 0.
1 0 0.
1 1 0.
0 0.5 0.
0.5 0 0.
1 0.5 0.
0.5 1 0.
0.29375 0.70625 0.
0.375 0.375 0.
0.6479167 0.64375 0.
0.71875 0.28125 0.

CELLS 14 56
3 6 3 10
3 4 0 9
3 0 5 9
3 3 7 10
3 5 2 11
3 2 6 11
3 7 1 8
3 1 4 8
3 6 10 11
3 8 4 9
3 8 9 10
3 9 5 11
3 10 9 11
3 7 8 10

CELL_TYPES 14
5
5
5
5
5
5
5
5
5
5
5
5
5
5

CELL_DATA 14
SCALARS sol float 1
LOOKUP_TABLE default
2.199231e-09
5.068704e-09
5.293177e-09
2.205757e-09
1.194407e-10
1.182522e-10
1.708368e-10
1.725537e-10
0.0001152362
0.0002083803
0.1925684
0.0001746156
0.1706948
0.0001498163

SCALARS CFL float 1
LOOKUP_TABLE default
1e-10
1e-10
1e-10
1e-10
1e-10
1e-10
1e-10
1e-10
3.125874e-07
5.707588e-07
0.0005330682
4.72831e-07
0.0004618832
4.06998e-07

VECTORS vel float
0.5 -0.8 0
0.5 -0.8 0
0.5 -0.8 0
0.5 -0.8 0
0.5 -0.8 0
0.5 -0.8 0
0.5 -0.8 0
0.5 -0.8 0
0.5 -0.8 0
0.5 -0.8 0
0.5 -0.8 0
0.5 -0.8 0
0.5 -0.8 0
0.5 -0.8 0

