# vtk DataFile Version 3.0 
2D Unstructured Grid
ASCII
DATASET UNSTRUCTURED_GRID
POINTS 12 float 
0 0 0.
0 1 0.
1 0 0.
1 1 0.
0 0.5 0.
0.5 0 0.
1 0.5 0.
0.5 1 0.
0.29375 0.70625 0.
0.375 0.375 0.
0.6479167 0.64375 0.
0.71875 0.28125 0.

CELLS 14 56
3 6 3 10
3 4 0 9
3 0 5 9
3 3 7 10
3 5 2 11
3 2 6 11
3 7 1 8
3 1 4 8
3 6 10 11
3 8 4 9
3 8 9 10
3 9 5 11
3 10 9 11
3 7 8 10

CELL_TYPES 14
5
5
5
5
5
5
5
5
5
5
5
5
5
5

CELL_DATA 14
SCALARS sol float 1
LOOKUP_TABLE default
2.190798e-09
5.090321e-09
5.090321e-09
2.294609e-09
1.09284e-10
1.09284e-10
1.86545e-10
1.86545e-10
0.0001115178
0.0002151844
0.1961052
0.000166426
0.1675436
0.0001570834

SCALARS CFL float 1
LOOKUP_TABLE default
1e-10
1e-10
1e-10
1e-10
1e-10
1e-10
1e-10
1e-10
3.025008e-07
5.893955e-07
0.000542859
4.506549e-07
0.0004533565
4.2674e-07

VECTORS vel float
0.5 -0.8 0
0.5 -0.8 0
0.5 -0.8 0
0.5 -0.8 0
0.5 -0.8 0
0.5 -0.8 0
0.5 -0.8 0
0.5 -0.8 0
0.5 -0.8 0
0.5 -0.8 0
0.5 -0.8 0
0.5 -0.8 0
0.5 -0.8 0
0.5 -0.8 0

