# vtk DataFile Version 3.0 
2D Unstructured Grid
ASCII
DATASET UNSTRUCTURED_GRID
POINTS 12 float 
0 0 0.
0 1 0.
1 0 0.
1 1 0.
0 0.5 0.
0.5 0 0.
1 0.5 0.
0.5 1 0.
0.29375 0.70625 0.
0.375 0.375 0.
0.6479167 0.64375 0.
0.71875 0.28125 0.

CELLS 14 56
3 6 3 10
3 4 0 9
3 0 5 9
3 3 7 10
3 5 2 11
3 2 6 11
3 7 1 8
3 1 4 8
3 6 10 11
3 8 4 9
3 8 9 10
3 9 5 11
3 10 9 11
3 7 8 10

CELL_TYPES 14
5
5
5
5
5
5
5
5
5
5
5
5
5
5

CELL_DATA 14
SCALARS sol float 1
LOOKUP_TABLE default
2.736067e-09
5.456289e-07
7.886581e-09
1.071203e-07
3.640358e-06
2.199376e-06
1.86545e-10
1.86545e-10
0.0004646619
0.0002139161
0.1948815
0.000814972
0.1677061
0.0001562499

SCALARS CFL float 1
LOOKUP_TABLE default
1e-10
1.148197e-09
1e-10
2.317595e-10
8.708626e-09
5.261444e-09
1e-10
1e-10
1.260432e-06
5.859217e-07
0.0005394714
2.206813e-06
0.0004537962
4.244756e-07

VECTORS vel float
0.5 -0.8 0
0.5 -0.8 0
0.5 -0.8 0
0.5 -0.8 0
0.5 -0.8 0
0.5 -0.8 0
0.5 -0.8 0
0.5 -0.8 0
0.5 -0.8 0
0.5 -0.8 0
0.5 -0.8 0
0.5 -0.8 0
0.5 -0.8 0
0.5 -0.8 0

